
 Working directory              : /tmp/asmola/molpro.VwJ7gCnKLR/
 Global scratch directory       : /tmp/asmola/molpro.VwJ7gCnKLR/
 Wavefunction directory         : /home/asmola/wfu/
 Main file repository           : /tmp/asmola/molpro.VwJ7gCnKLR/

 id        : uclcc

 Nodes                        nprocs
 vincent.theory.phys.ucl.ac.uk    1
 GA implementation: MPI file
 GA implementation (serial work in mppx): MPI file

 Using customized tuning parameters: mindgm=1; mindgv=20; mindgc=4; mindgr=1; noblas=0; minvec=7
 default implementation of scratch files=df  


 Variables initialized (1015), CPU time= 0.01 sec
 ***,CH3+ Ground State Energy with CCSD(T)-F12 and cc-pVTZ-F12
 memory,500,m;
 
 geometry={angstrom
 c
 h1 , 1, rch1
 h2 , 1, rch2, 2, ach12
 h3 , 1, rch3, 2, ach23, 3, rho
 }
 
 rch1 = 1.00
 rch2 = 1.00
 rch3 = 1.00
 ach12 = 120.00
 ach23 = 120.00
 rho = 180.00
 
                                                                                 ! Set charge to +1
 set,nelec=8
 set,charge=+1
                                                                                 ! Use the cc-pVTZ-F12 basis set
 basis=cc-pVTZ-F12
 
 hf
 optg,procedure=runmp2,savexyz=CH3OH_equilibrium_mp2.xyz
 runmp2 = {hf;mp2}
 
                                                                                 ! Use explicitly correlated F12 methods
                                                                            ! First, MP2-F12 (useful for initial electronic energy)
 {mp2-f12}
 
                                                                        ! If desired, perform CCSD(T)-F12 for more accurate results
 {ccsd(t)-f12}
 
                                                                                 ! Output the energy
 
 Commands initialized (818), CPU time= 0.00 sec, 672 directives.
 Default parameters read. Elapsed time= 0.05 sec

 Checking input...
 Passed
1


                                         ***  PROGRAM SYSTEM MOLPRO  ***
                                       Copyright, TTI GmbH Stuttgart, 2015
                                    Version 2022.1 linked Mar  3 2022 23:20:00


 **********************************************************************************************************************************
 LABEL *   CH3+ Ground State Energy with CCSD(T)-F12 and cc-pVTZ-F12                     
  (8 PROC) 64 bit serial version                                                         DATE: 04-Oct-24          TIME: 12:39:45  
 **********************************************************************************************************************************

 SHA1:             31073afc4d8441e10870424e0d77336a33bc4286
 **********************************************************************************************************************************

 Memory per process:       500 MW
 Total memory per node:    500 MW

 GA preallocation disabled
 GA check disabled

 Variable memory set to 500.0 MW

 SETTING RCH1           =         1.00000000                                  
 SETTING RCH2           =         1.00000000                                  
 SETTING RCH3           =         1.00000000                                  
 SETTING ACH12          =       120.00000000                                  
 SETTING ACH23          =       120.00000000                                  
 SETTING RHO            =       180.00000000                                  
 SETTING !NELEC         =         8.00000000                                  
 SETTING CHARGE         =         1.00000000                                  
 SETTING BASIS          =    CC-PVTZ-F12


 Recomputing integrals since basis changed


 Using spherical harmonics

 Library entry C      S cc-pVTZ-F12          selected for orbital group  1
 Library entry C      P cc-pVTZ-F12          selected for orbital group  1
 Library entry C      D cc-pVTZ-F12          selected for orbital group  1
 Library entry C      F cc-pVTZ-F12          selected for orbital group  1
 Library entry H      S cc-pVTZ-F12          selected for orbital group  2
 Library entry H      P cc-pVTZ-F12          selected for orbital group  2
 Library entry H      D cc-pVTZ-F12          selected for orbital group  2


 PROGRAM * SEWARD (Integral evaluation for generally contracted gaussian basis sets)     Author: Roland Lindh, 1990

 Geometry written to block  1 of record 700

 Orientation using atomic masses  
 Molecule type: Symmetric top,     Order of principal axis = 3
 Symmetry elements: Y,Z
 Rotational constants:     334.2652651    334.2652651    167.1326326 GHz  (calculated with average atomic masses)

 Point group  C2v 



 ATOMIC COORDINATES

 NR  ATOM    CHARGE       X              Y              Z

   1  C       6.00   -0.000000000    0.000000000    0.000000000
   2  H1      1.00    0.944863062   -1.636550830    0.000000000
   3  H3      1.00    0.944863062    1.636550830    0.000000000
   4  H2      1.00   -1.889726125    0.000000000    0.000000000

 Bond lengths in Bohr (Angstrom)

 1-2  1.889726125  1-3  1.889726125  1-4  1.889726125
     ( 1.000000000)     ( 1.000000000)     ( 1.000000000)

 Bond angles

  2-1-3  120.00000000   2-1-4  120.00000000   3-1-4  120.00000000

 NUCLEAR CHARGE:                    9
 NUMBER OF PRIMITIVE AOS:         135
 NUMBER OF SYMMETRY AOS:          123
 NUMBER OF CONTRACTIONS:          107   (   44A1  +   30B1  +   22B2  +   11A2  )
 NUMBER OF INNER CORE ORBITALS:     0   (    0A1  +    0B1  +    0B2  +    0A2  )
 NUMBER OF OUTER CORE ORBITALS:     1   (    1A1  +    0B1  +    0B2  +    0A2  )
 NUMBER OF VALENCE ORBITALS:        7   (    4A1  +    2B1  +    1B2  +    0A2  )


 NUCLEAR REPULSION ENERGY   10.44175161


 Eigenvalues of metric

         1 0.160E-03 0.269E-03 0.542E-03 0.629E-03 0.143E-02 0.193E-02 0.217E-02 0.288E-02
         2 0.269E-03 0.542E-03 0.193E-02 0.288E-02 0.419E-02 0.649E-02 0.105E-01 0.221E-01
         3 0.542E-03 0.686E-02 0.111E-01 0.303E-01 0.625E-01 0.784E-01 0.113E+00 0.146E+00
         4 0.111E-01 0.625E-01 0.113E+00 0.146E+00 0.490E+00 0.576E+00 0.711E+00 0.819E+00


 Contracted 2-electron integrals neglected if value below      1.0D-11
 AO integral compression algorithm  1   Integral accuracy      1.0D-11

     27.525 MB (compressed) written to integral file ( 60.3%)


 NUMBER OF SORTED TWO-ELECTRON INTEGRALS:    4415131.     BUFFER LENGTH:  32768
 NUMBER OF SEGMENTS:   1  SEGMENT LENGTH:    4415131      RECORD LENGTH: 524288

 Memory used in sort:       4.97 MW

 SORT1 READ     5710629. AND WROTE     4215634. INTEGRALS IN     13 RECORDS. CPU TIME:     0.07 SEC, REAL TIME:     0.09 SEC
 SORT2 READ     4215634. AND WROTE     4415131. INTEGRALS IN    105 RECORDS. CPU TIME:     0.09 SEC, REAL TIME:     0.11 SEC

 FILE SIZES:   FILE 1:    57.8 MBYTE,  FILE 4:    54.6 MBYTE,   TOTAL:    112.4 MBYTE

 OPERATOR DM      FOR CENTER  0  COORDINATES:    0.000000    0.000000    0.000000


 **********************************************************************************************************************************
 DATASETS  * FILE   NREC   LENGTH (MB)   RECORD NAMES
              1      19       48.69       500      610      700      900      950      970     1000      129      960     1100   
                                          VAR    BASINP    GEOM    SYMINP    ZMAT    AOBASIS   BASIS     P2S    ABASIS      S 
                                         1400     1410     1200     1210     1080     1600     1650     1300     1700   
                                           T        V       H0       H01     AOSYM     SMH    MOLCAS    ERIS     OPER   

 PROGRAMS   *        TOTAL       INT
 CPU TIMES  *         1.48      1.38
 REAL TIME  *         0.89 SEC
 DISK USED  *       107.46 MB
 **********************************************************************************************************************************


 Program * Restricted Hartree-Fock

 Orbital guess generated from atomic densities. Full valence occupancy:    5   2   1   0

 Initial occupancy:   3   1   0   0

 NELEC=    8   SYM=1   MS2= 0   THRE=1.0D-08   THRD=1.0D-06   THRG=1.0D-06  HFMA2=F  DIIS_START=2   DIIS_MAX=10   DIIS_INCORE=F

 Level shifts:    0.00 (CLOSED)    0.00 (OPEN)    0.30 (GAP_MIN)

 ITER           ETOT              DE          GRAD        DDIFF     DIIS  NEXP   TIME(IT)  TIME(TOT)  DIAG
   1      -39.18500962     -39.18500962     0.00D+00     0.11D+00     0     0       0.10      0.13    start
   2      -39.23278666      -0.04777704     0.15D-01     0.17D-01     1     0       0.05      0.18    diag
   3      -39.23474132      -0.00195466     0.39D-02     0.44D-02     2     0       0.06      0.24    diag
   4      -39.23485331      -0.00011200     0.63D-03     0.66D-03     3     0       0.06      0.30    diag
   5      -39.23485616      -0.00000285     0.10D-03     0.83D-04     4     0       0.05      0.35    diag
   6      -39.23485624      -0.00000008     0.16D-04     0.16D-04     5     0       0.06      0.41    diag
   7      -39.23485624      -0.00000000     0.10D-05     0.20D-05     6     0       0.08      0.49    diag
   8      -39.23485624      -0.00000000     0.57D-07     0.22D-06     7     0       0.06      0.55    fixocc
   9      -39.23485624      -0.00000000     0.50D-08     0.10D-07     0     0       0.05      0.60    diag

 Final occupancy:   3   1   0   0

 !RHF STATE 1.1 Energy                -39.234856241602
  RHF One-electron energy             -69.393935366303
  RHF Two-electron energy              19.717327512955
  RHF Kinetic energy                   39.642679964549
  RHF Nuclear energy                   10.441751611746
  RHF Virial quotient                  -0.989712508758

 !RHF STATE 1.1 Dipole moment           0.00000000     0.00000000     0.00000000
 Dipole moment /Debye                   0.00000000     0.00000000     0.00000000

 Orbital energies:

           1.1          2.1          3.1          4.1          5.1
    -11.666643    -1.322802    -0.995097    -0.122483    -0.085737

           1.2          2.2          3.2
     -0.995097    -0.085737    -0.004027

           1.3          2.3
     -0.292106    -0.068634

           1.4          2.4
      0.173812     0.640921


 HOMO      1.2    -0.995097 =     -27.0780eV
 LUMO      1.3    -0.292106 =      -7.9486eV
 LUMO-HOMO         0.702992 =      19.1294eV

 Orbitals saved in record  2100.2


 **********************************************************************************************************************************
 DATASETS  * FILE   NREC   LENGTH (MB)   RECORD NAMES
              1      19       48.69       500      610      700      900      950      970     1000      129      960     1100   
                                          VAR    BASINP    GEOM    SYMINP    ZMAT    AOBASIS   BASIS     P2S    ABASIS      S 
                                         1400     1410     1200     1210     1080     1600     1650     1300     1700   
                                           T        V       H0       H01     AOSYM     SMH    MOLCAS    ERIS     OPER   

              2       4        0.44       700     1000      520     2100   
                                         GEOM     BASIS   MCVARS     RHF  

 PROGRAMS   *        TOTAL    HF-SCF       INT
 CPU TIMES  *         2.08      0.60      1.38
 REAL TIME  *         1.08 SEC
 DISK USED  *       107.46 MB
 **********************************************************************************************************************************


 PROGRAM * OPT (Geometry optimization)     Authors: F. Eckert and H.-J. Werner


 BFGS update of hessian

 Geometry optimization using procedure=RUNMP2

 Running procedure: RUNMP2


 Program * Restricted Hartree-Fock

 Molecular orbitals read from record     2100.2  Type=RHF/CANONICAL  

 Initial occupancy:   3   1   0   0

 NELEC=    8   SYM=1   MS2= 0   THRE=1.0D-08   THRD=1.0D-06   THRG=1.0D-06  HFMA2=F  DIIS_START=2   DIIS_MAX=10   DIIS_INCORE=F

 Level shifts:    0.00 (CLOSED)    0.00 (OPEN)    0.30 (GAP_MIN)

 ITER           ETOT              DE          GRAD        DDIFF     DIIS  NEXP   TIME(IT)  TIME(TOT)  DIAG
   1      -39.23485624     -39.23485624     0.00D+00     0.12D+00     0     0       0.09      0.10    start
   2      -39.23485624       0.00000000     0.13D-08     0.22D-08     1     0       0.05      0.15    diag

 Final occupancy:   3   1   0   0

 !RHF STATE 1.1 Energy                -39.234856241602
  RHF One-electron energy             -69.393935370390
  RHF Two-electron energy              19.717327517043
  RHF Kinetic energy                   39.642679988765
  RHF Nuclear energy                   10.441751611746
  RHF Virial quotient                  -0.989712508153

 !RHF STATE 1.1 Dipole moment           0.00000000     0.00000000     0.00000000
 Dipole moment /Debye                   0.00000000     0.00000000     0.00000000

 Orbital energies:

           1.1          2.1          3.1          4.1          5.1
    -11.666643    -1.322802    -0.995097    -0.122483    -0.085737

           1.2          2.2          3.2
     -0.995097    -0.085737    -0.004027

           1.3          2.3
     -0.292106    -0.068634

           1.4          2.4
      0.173812     0.640921


 HOMO      1.2    -0.995097 =     -27.0780eV
 LUMO      1.3    -0.292106 =      -7.9486eV
 LUMO-HOMO         0.702992 =      19.1294eV

 Orbitals saved in record  2101.2


 **********************************************************************************************************************************
 DATASETS  * FILE   NREC   LENGTH (MB)   RECORD NAMES
              1      19       48.69       500      610      700      900      950      970     1000      129      960     1100   
                                          VAR    BASINP    GEOM    SYMINP    ZMAT    AOBASIS   BASIS     P2S    ABASIS      S 
                                         1400     1410     1200     1210     1080     1600     1650     1300     1700   
                                           T        V       H0       H01     AOSYM     SMH    MOLCAS    ERIS     OPER   

              2       6        0.89       700     1000      520     2100      200     2101   
                                         GEOM     BASIS   MCVARS     RHF    OPTIONS    RHF  

 PROGRAMS   *        TOTAL    HF-SCF    HF-SCF       INT
 CPU TIMES  *         2.25      0.17      0.60      1.38
 REAL TIME  *         1.14 SEC
 DISK USED  *       107.46 MB
 **********************************************************************************************************************************


 PROGRAM * MP2 (Closed-shell)     Authors: C. Hampel, H.-J. Werner, 1991, M. Deegan, P.J. Knowles, 1992


 Convergence thresholds:  THRVAR = 1.00D-12  THRDEN = 1.00D-08

 Number of core orbitals:           1 (   1   0   0   0 )
 Number of closed-shell orbitals:   3 (   2   1   0   0 )
 Number of external orbitals:     103 (  41  29  22  11 )

 Molecular orbitals read from record     2101.2  Type=RHF/CANONICAL  

 Number of N-1 electron functions:               3
 Number of N-2 electron functions:               6
 Number of singly external CSFs:               111
 Number of doubly external CSFs:             13696
 Total number of CSFs:                       13808

 Length of J-op  integral file:               0.00 MB
 Length of K-op  integral file:               0.27 MB

 Integral transformation finished. Total CPU:   0.03 sec, npass=  1  Memory used:   0.11 MW

 Memory needed for MP2:                      0.02 MW

 SCS-MP2 correlation energy:           -0.143888846734   (PS=  1.200000  PT=  0.333333)
 SCS-MP2 total energy:                -39.378745088337


  Reference energy                    -39.234856241602
  MP2 singlet pair energy              -0.106467820085
  MP2 triplet pair energy              -0.025919136373
  MP2 correlation energy               -0.132386956458

 !MP2 total energy                    -39.367243198060

 KEXT needed  1 integral passes. Memory used:   0.15 MW  CPU time:      0.16 sec


 Starting Coupled-perturbed Hartree-Fock, convergence threshold= 1.0D-06

 ITER   MIC  DIIS      VAR         VARC       CPU
   1     0     1    0.78D-02    0.83D-03     0.06
   2     3     2    0.13D-03    0.31D-04     0.07
   3     3     3    0.42D-05    0.87D-06     0.09
   4     2     4    0.18D-06    0.48D-07     0.11

 CPHF convergence reached in  4 macroiterations and    8 microiterations.   Accuracy: 1.7724D-07

 CPHF solution written to record  4101.2

 Dipole moments (unrelaxed):            0.00000000     0.00000000     0.00000000
 Orbital relaxation contribution:      -0.00000000    -0.00000000    -0.00000000
 !MP2 STATE 1.1 Dipole moment           0.00000000     0.00000000     0.00000000
 Dipole moment /Debye                   0.00000000     0.00000000     0.00000000

 CPU-time for density and lagrangian:                  0.05 sec
 CPU-time for coupled-perturbed hartree-fock:          0.11 sec

 MP2 gradient info saved on record         5200.1


 **********************************************************************************************************************************
 DATASETS  * FILE   NREC   LENGTH (MB)   RECORD NAMES
              1      21       49.20       500      610      700      900      950      970     1000      129      960     1100   
                                          VAR    BASINP    GEOM    SYMINP    ZMAT    AOBASIS   BASIS     P2S    ABASIS      S 
                                         1400     1410     1200     1210     1080     1600     1650     1300     1700     1380   
                                           T        V       H0       H01     AOSYM     SMH    MOLCAS    ERIS     OPER     JKOP   
                                         5200   
                                          MP2  

              2       7        1.05       700     1000      520     2100      200     2101     4101   
                                         GEOM     BASIS   MCVARS     RHF    OPTIONS    RHF     CPHF   

 PROGRAMS   *        TOTAL       MP2    HF-SCF       INT
 CPU TIMES  *         2.81      0.55      0.60      1.38
 REAL TIME  *         1.36 SEC
 DISK USED  *       107.46 MB
 **********************************************************************************************************************************

 Geometry written to block  1 of record 700

 XYZ inputs for each point on the optimization path will be saved in files ch3oh_equilibrium_mp2_xx.xyz

 *** Long output written to logfile /scratch/vol1/asmola/CH3+/MolPro/CH3+_OPTG_MP2.log ***


 Making model hessian for Z-matrix coordinates

 Entering Rational Function Geometry Optimization

 ITER.   ENERGY(OLD)    ENERGY(NEW)      DE          GRADMAX     GRADNORM    GRADRMS     STEPMAX     STEPLEN     STEPRMS   CPU-time
   1   -39.36724320   -39.38310738    -0.01586418  0.07590153  0.13146531  0.05367049  0.11614719  0.20117284  0.03352881      7.53
   2   -39.38310738   -39.38431963    -0.00121224  0.01836593  0.03181073  0.01298667  0.03692369  0.06395371  0.01065895     14.20
   3   -39.38431963   -39.38437744    -0.00005781  0.00378519  0.00655615  0.00267654  0.00958283  0.01659796  0.00276633     20.86
   4   -39.38437744   -39.38437771    -0.00000027  0.00025329  0.00043872  0.00017911  0.00068724  0.00119034  0.00019839     27.50

 END OF GEOMETRY OPTIMIZATION.

 Optimized variables
 RCH1=                1.08643631 ANGSTROM
 RCH2=                1.08643631 ANGSTROM
 ACH12=             119.99999997 DEGREE
 RCH3=                1.08643631 ANGSTROM
 ACH23=             120.00000005 DEGREE
 RHO=               180.00000000 DEGREE

 **********************************************************************************************************************************

 Geometry written to block  1 of record 700

 Recomputing wavefunction for reoriented structure

 Current geometry (xyz format, in Angstrom)


 Dump information in style XYZ to ch3oh_equilibrium_mp2.xyz                                                       

    4
 MP2/CC-PVTZ-F12  ENERGY=-39.38437771
 C          0.0000000000        0.0000000000        0.0000000000
 H          0.5432181568       -0.9408814481        0.0000000000
 H         -1.0864363141        0.0000000000        0.0000000000
 H          0.5432181568        0.9408814481        0.0000000000

 **********************************************************************************************************************************


 **********************************************************************************************************************************
 DATASETS  * FILE   NREC   LENGTH (MB)   RECORD NAMES
              1      21       48.92       500      610      700      900      950      970     1000      129      960     1100   
                                          VAR    BASINP    GEOM    SYMINP    ZMAT    AOBASIS   BASIS     P2S    ABASIS      S 
                                         1400     1410     1200     1210     1080     1600     1650     1300     1700     1380   
                                           T        V       H0       H01     AOSYM     SMH    MOLCAS    ERIS     OPER     JKOP   
                                         5200   
                                          MP2  

              2       8        1.12       700     1000      520     2100      200     2101     4101     9001   
                                         GEOM     BASIS   MCVARS     RHF    OPTIONS    RHF     CPHF    DEN_MP2    

 PROGRAMS   *        TOTAL      OPTG    HF-SCF       INT
 CPU TIMES  *        29.96     27.88      0.60      1.38
 REAL TIME  *         8.95 SEC
 DISK USED  *       108.07 MB
 **********************************************************************************************************************************


 PROGRAM * MP2 (Closed-shell)     Authors: C. Hampel, H.-J. Werner, 1991, M. Deegan, P.J. Knowles, 1992

                                   MP2-F12 implementation by H.-J. Werner, 2007

                   Density fitting integral evaluation by F.R. Manby, 2003,2007, G. Knizia, 2010


 Basis set VTZ-F12/JKFIT generated.      Number of basis functions:   242 
 Basis set CC-PVTZ-F12/OPTRI generated.  Number of basis functions:   198 
 Basis set CC-PVTZ-F12/MP2FIT generated. Number of basis functions:   244 

 Deleting transformed integrals

 Convergence thresholds:  THRVAR = 1.00D-12  THRDEN = 1.00D-08

 Number of core orbitals:           1 (   1   0   0   0 )
 Number of closed-shell orbitals:   3 (   2   1   0   0 )
 Number of external orbitals:     103 (  41  29  22  11 )

 Molecular orbitals read from record     2101.2  Type=RHF/CANONICAL (state 1.1)

 MP2-F12 correlation treatment (H.-J. Werner, 2006)
 ==================================================

 Using MP2-F12 with ansatz 3C(FIX)

 Using projected zeroth-order Hamiltonian (+Z)

 FOCKRIB=T FOCKRIC=T FOCKRIP=T CABSP=T CABSA=T CABSK=T CABSF=T GBC=F EBC=F DMAT=T NOFIK=T NOPAO=1 SOLVE=-1  USEPAO=0
 EXCH_A= T EXCH_B= F EXCH_C= F EXCH_P= F

 Geminal basis:    OPTFULL  GEM_TYPE=SLATER  BETA=1.0  NGEM=6

 Optimizing Gaussian exponents for each gem_beta

 Geminal optimization for beta= 1.0000
 Weight function:   m=0, omega= 1.4646

 Augmented Hessian optimization of geminal fit. Trust ratio= 0.40000
 Convergence reached after   2 iterations. Final gradient= 8.66D-16, Step= 4.23D-06, Delta= 1.28D-09

 Alpha:                 0.19532     0.81920     2.85917     9.50073    35.69989   197.79328
 Coeff:                 0.27070     0.30552     0.18297     0.10986     0.06810     0.04224


 Symmetry turned off. Reference energy:        -39.249882435949

 All pairs explicitly correlated. Number of r12-pairs:            6

 Excluding core orbitals from MO domains

 AO(A)-basis ORBITAL           loaded. Number of functions:     107
 RI(R)-basis CC-PVTZ-F12/OPTRI loaded. Number of functions:     198
 DF-basis VTZ-F12/JKFIT        loaded. Number of functions:     242

 Screening thresholds:   THRAO=  1.00D-10  THRMO=  1.00D-10  THRPROD=  1.00D-10
                         THRSW=  1.00D-07  THROV=  1.00D-12  THRAOF12= 1.00D-08

 CPU time for Fock operators                      1.80 sec

 Construction of ABS:
 Smallest eigenvalue of S          3.58E-04  (threshold= 1.00E-08)
 Ratio eigmin/eigmax               5.50E-05  (threshold= 1.00E-09)
 Smallest eigenvalue of S kept     3.58E-04  (threshold= 3.58E-04, 0 functions deleted, 198 kept)

 Construction of CABS:
 Smallest eigenvalue of S          1.38E-06  (threshold= 1.00E-08)
 Ratio eigmin/eigmax               1.38E-06  (threshold= 1.00E-09)
 Smallest eigenvalue of S kept     1.38E-06  (threshold= 1.38E-06, 0 functions deleted, 198 kept)

 CPU time for CABS singles                        0.06 sec

 CABS-singles contribution of  -0.00046527 patched into reference energy.
 New reference energy         -39.25034771

 AO(A)-basis ORBITAL           loaded. Number of functions:     107
 RI(R)-basis CC-PVTZ-F12/OPTRI loaded. Number of functions:     198
 DF-basis CC-PVTZ-F12/MP2FIT   loaded. Number of functions:     244

 Screening thresholds:   THRAO=  1.00D-10  THRMO=  1.00D-10  THRPROD=  1.00D-10
                         THRSW=  1.00D-07  THROV=  1.00D-12  THRAOF12= 1.00D-08

 CPU time for 3-index integral evaluation         1.11 sec
 CPU time for first  half transformation          0.03 sec ( 8046.5 MFLOP/sec)
 CPU time for fitting                             0.03 sec ( 3774.6 MFLOP/sec)
 CPU time for tilde quantities                    0.02 sec ( 7501.5 MFLOP/sec)
 CPU time for assembly                            0.06 sec ( 9787.3 MFLOP/sec)
 CPU time for tranop_f12                          0.10 sec ( 6813.3 MFLOP/sec)
 CPU time for f12 integrals (total)               2.32 sec, Elapsed time:      1.63 sec
 CPU time for f12 matrices (total)                0.05 sec, Elapsed time:      0.01 sec

 Diagonal F12 approximation with fixed coefficients:  TSING= 0.500,  TTRIP= 0.250 (scaled by -1/beta)

 DF-MP2-F12 energy corrections:
 ==============================
 Approx.                                    Singlet             Triplet             Total
 DF-MP2-F12/3*C(DX,FIX)                -0.012535439186     -0.000633405302     -0.013168844489
 DF-MP2-F12/3*C(FIX)                   -0.012174914336     -0.000629860537     -0.012804774874
 DF-MP2-F12/3C(FIX)                    -0.012114435639     -0.000638130637     -0.012752566276

 DF-MP2-F12 correlation energies:
 ================================
 Approx.                                    Singlet             Triplet             Ecorr            Total Energy
 DF-MP2                                -0.108162643116     -0.026264314316     -0.134426957432    -39.384774663199
 DF-MP2-F12/3*C(DX,FIX)                -0.120698082303     -0.026897719619     -0.147595801921    -39.397943507688
 DF-MP2-F12/3*C(FIX)                   -0.120337557453     -0.026894174853     -0.147231732306    -39.397579438072
 DF-MP2-F12/3C(FIX)                    -0.120277078756     -0.026902444953     -0.147179523709    -39.397527229475

 SCS-DF-MP2 energies (F_SING= 1.20000  F_TRIP= 0.62222  F_PARALLEL= 0.33333):
 ============================================================================
 SCS-DF-MP2                            -0.146137411759    -39.396485117525
 SCS-DF-MP2-F12/3*C(DX,FIX)            -0.161574057637    -39.411921763403
 SCS-DF-MP2-F12/3*C(FIX)               -0.161139222185    -39.411486927952
 SCS-DF-MP2-F12/3C(FIX)                -0.161071793589    -39.411419499355

 Symmetry restored.
 Symmetry transformation completed.

 Number of N-1 electron functions:               3
 Number of N-2 electron functions:               6
 Number of singly external CSFs:               111
 Number of doubly external CSFs:             13696
 Total number of CSFs:                       13808

 Length of J-op  integral file:               7.76 MB
 Length of K-op  integral file:              13.74 MB

 Integral transformation finished. Total CPU:   0.07 sec, npass=  1  Memory used:   0.11 MW

 ITER.      SQ.NORM     CORR.ENERGY   TOTAL ENERGY   ENERGY CHANGE     VAR   MIC
   1      1.00000000    -0.13449527   -39.38484298    -0.13449527  0.00D+00   0
   2      1.03826621    -0.13449527   -39.38484298     0.00000000 -0.61D-11   0

 Solving MP2-F12 equations

   1      1.03822329    -0.14703927   -39.39738698    -0.01254400 -0.28D-04   0
   2      1.03822329    -0.14724712   -39.39759482    -0.00020784  0.26D-14   0
   3      1.03822329    -0.14724712   -39.39759482     0.00000000 -0.18D-18   0

 CPU TIME FOR ITERATIVE MP2:    0.07 SEC


 MP2-F12 energy corrections:
 ===========================
 Approx.                                    Singlet             Triplet             Total
 MP2-F12/3*C(DX,FIX)                   -0.012535439186     -0.000633405302     -0.013168844489
 MP2-F12/3*C(FIX)                      -0.012174914336     -0.000629860537     -0.012804774874
 MP2-F12/3C(FIX)                       -0.012112737809     -0.000639107312     -0.012751845121

 MP2-F12 correlation energies:
 =============================
 Approx.                                    Singlet             Triplet             Ecorr            Total Energy
 MP2                                   -0.108253380975     -0.026241890357     -0.134495271332    -39.384842977098
 MP2-F12/3*C(DX,FIX)                   -0.120788820161     -0.026875295660     -0.147664115821    -39.398011821587
 MP2-F12/3*C(FIX)                      -0.120428295311     -0.026871750894     -0.147300046205    -39.397647751972
 MP2-F12/3C(FIX)                       -0.120366118783     -0.026880997670     -0.147247116453    -39.397594822219

 SCS-MP2 energies (F_SING= 1.20000  F_TRIP= 0.62222  F_PARALLEL= 0.33333):
 =========================================================================
 SCS-MP2                               -0.146232344503    -39.396580050269
 SCS-MP2-F12/3*C(DX,FIX)               -0.161668990382    -39.412016696148
 SCS-MP2-F12/3*C(FIX)                  -0.161234154930    -39.411581860696
 SCS-MP2-F12/3C(FIX)                   -0.161165296646    -39.411513002412


  Reference energy                    -39.249882435949
  F12 singles correction               -0.000465269818

 F12 singles corrections added to reference energy

  New reference energy                -39.250347705766

  F12/3C(F) singlet correction         -0.012112737809
  F12/3C(F) triplet correction         -0.000639107312
  F12/3C(F) total correction           -0.012751845121
  MP2-F12/3C(F) singlet pair energy    -0.120366118783
  MP2-F12/3C(F) triplet pair energy    -0.026880997670
  MP2-F12/3C(F) correlation energy     -0.147247116453

 !MP2-F12/3C(F) total energy          -39.397594822219


 **********************************************************************************************************************************
 DATASETS  * FILE   NREC   LENGTH (MB)   RECORD NAMES
              1      20       48.69       500      610      700      900      950      970     1000      129      960     1100   
                                          VAR    BASINP    GEOM    SYMINP    ZMAT    AOBASIS   BASIS     P2S    ABASIS      S 
                                         1400     1410     1200     1210     1080     1600     1650     1300     1700     1380   
                                           T        V       H0       H01     AOSYM     SMH    MOLCAS    ERIS     OPER     JKOP   

              2      11        1.12       700     1000      520     2100      200     2101     4101     9001     7360     7350   
                                         GEOM     BASIS   MCVARS     RHF    OPTIONS    RHF     CPHF    DEN_MP2  F12ABS    EF12   
                                         7000   

 PROGRAMS   *        TOTAL   MP2-F12      OPTG    HF-SCF       INT
 CPU TIMES  *        34.74      4.78     27.88      0.60      1.38
 REAL TIME  *        12.05 SEC
 DISK USED  *       108.07 MB
 **********************************************************************************************************************************


 PROGRAM * CCSD (Closed-shell coupled cluster)     Authors: C. Hampel, H.-J. Werner, 1991, M. Deegan, P.J. Knowles, 1992

                                  CCSD-F12 implementation by  H.-J. Werner, 2007

                   Density fitting integral evaluation by F.R. Manby, 2003,2007, G. Knizia, 2010



 Convergence thresholds:  THRVAR = 1.00D-12  THRDEN = 1.00D-08

 CCSD(T)     terms to be evaluated (factor= 1.000)


 Number of core orbitals:           1 (   1   0   0   0 )
 Number of closed-shell orbitals:   3 (   2   1   0   0 )
 Number of external orbitals:     103 (  41  29  22  11 )

 Molecular orbitals read from record     2101.2  Type=RHF/CANONICAL (state 1.1)

 MP2-F12 correlation treatment (H.-J. Werner, 2006)
 ==================================================

 Using MP2-F12 with ansatz 3C(FIX)

 Using projected zeroth-order Hamiltonian (+Z)

 FOCKRIB=T FOCKRIC=T FOCKRIP=T CABSP=T CABSA=T CABSK=T CABSF=T GBC=F EBC=F DMAT=T NOFIK=T NOPAO=1 SOLVE=-1  USEPAO=0
 EXCH_A= T EXCH_B= F EXCH_C= F EXCH_P= F

 Geminal basis:    OPTFULL  GEM_TYPE=SLATER  BETA=1.0  NGEM=6

 Optimizing Gaussian exponents for each gem_beta

 Geminal optimization for beta= 1.0000
 Weight function:   m=0, omega= 1.4646

 Augmented Hessian optimization of geminal fit. Trust ratio= 0.40000
 Convergence reached after   2 iterations. Final gradient= 8.66D-16, Step= 4.23D-06, Delta= 1.28D-09

 Alpha:                 0.19532     0.81920     2.85917     9.50073    35.69989   197.79328
 Coeff:                 0.27070     0.30552     0.18297     0.10986     0.06810     0.04224


 Symmetry turned off. Reference energy:        -39.249882435949

 All pairs explicitly correlated. Number of r12-pairs:            6

 Excluding core orbitals from MO domains

 AO(A)-basis ORBITAL           loaded. Number of functions:     107
 RI(R)-basis CC-PVTZ-F12/OPTRI loaded. Number of functions:     198
 DF-basis VTZ-F12/JKFIT        loaded. Number of functions:     242

 Screening thresholds:   THRAO=  1.00D-10  THRMO=  1.00D-10  THRPROD=  1.00D-10
                         THRSW=  1.00D-07  THROV=  1.00D-12  THRAOF12= 1.00D-08

 CPU time for Fock operators                      1.82 sec

 Construction of ABS:
 Smallest eigenvalue of S          3.58E-04  (threshold= 1.00E-08)
 Ratio eigmin/eigmax               5.50E-05  (threshold= 1.00E-09)
 Smallest eigenvalue of S kept     3.58E-04  (threshold= 3.58E-04, 0 functions deleted, 198 kept)

 Construction of CABS:
 Smallest eigenvalue of S          1.38E-06  (threshold= 1.00E-08)
 Ratio eigmin/eigmax               1.38E-06  (threshold= 1.00E-09)
 Smallest eigenvalue of S kept     1.38E-06  (threshold= 1.38E-06, 0 functions deleted, 198 kept)

 CPU time for CABS singles                        0.05 sec

 CABS-singles contribution of  -0.00046527 patched into reference energy.
 New reference energy         -39.25034771

 AO(A)-basis ORBITAL           loaded. Number of functions:     107
 RI(R)-basis CC-PVTZ-F12/OPTRI loaded. Number of functions:     198
 DF-basis CC-PVTZ-F12/MP2FIT   loaded. Number of functions:     244

 Screening thresholds:   THRAO=  1.00D-10  THRMO=  1.00D-10  THRPROD=  1.00D-10
                         THRSW=  1.00D-07  THROV=  1.00D-12  THRAOF12= 1.00D-08

 CPU time for 3-index integral evaluation         1.07 sec
 CPU time for first  half transformation          0.07 sec ( 3448.5 MFLOP/sec)
 CPU time for second half transformation          0.01 sec (  438.6 MFLOP/sec)
 CPU time for sorting                             0.01 sec
 CPU time for fitting                             0.01 sec (11323.7 MFLOP/sec)
 CPU time for tilde quantities                    0.01 sec (15003.1 MFLOP/sec)
 CPU time for assembly                            0.08 sec ( 7340.5 MFLOP/sec)
 CPU time for tranop_f12                          0.11 sec ( 6193.9 MFLOP/sec)
 CPU time for f12 integrals (total)               2.33 sec, Elapsed time:      1.63 sec
 CPU time for f12 matrices (total)                0.05 sec, Elapsed time:      0.01 sec

 Diagonal F12 approximation with fixed coefficients:  TSING= 0.500,  TTRIP= 0.250 (scaled by -1/beta)

 DF-MP2-F12 energy corrections:
 ==============================
 Approx.                                    Singlet             Triplet             Total
 DF-MP2-F12/3*C(DX,FIX)                -0.012535439186     -0.000633405302     -0.013168844489
 DF-MP2-F12/3*C(FIX)                   -0.012174914336     -0.000629860537     -0.012804774874
 DF-MP2-F12/3C(FIX)                    -0.012114435639     -0.000638130637     -0.012752566276

 DF-MP2-F12 correlation energies:
 ================================
 Approx.                                    Singlet             Triplet             Ecorr            Total Energy
 DF-MP2                                -0.108162643116     -0.026264314316     -0.134426957432    -39.384774663199
 DF-MP2-F12/3*C(DX,FIX)                -0.120698082303     -0.026897719619     -0.147595801921    -39.397943507688
 DF-MP2-F12/3*C(FIX)                   -0.120337557453     -0.026894174853     -0.147231732306    -39.397579438072
 DF-MP2-F12/3C(FIX)                    -0.120277078756     -0.026902444953     -0.147179523709    -39.397527229475

 SCS-DF-MP2 energies (F_SING= 1.20000  F_TRIP= 0.62222  F_PARALLEL= 0.33333):
 ============================================================================
 SCS-DF-MP2                            -0.146137411759    -39.396485117525
 SCS-DF-MP2-F12/3*C(DX,FIX)            -0.161574057637    -39.411921763403
 SCS-DF-MP2-F12/3*C(FIX)               -0.161139222185    -39.411486927952
 SCS-DF-MP2-F12/3C(FIX)                -0.161071793589    -39.411419499355

 Symmetry restored.
 Symmetry transformation completed.

 Number of N-1 electron functions:               3
 Number of N-2 electron functions:               6
 Number of singly external CSFs:               111
 Number of doubly external CSFs:             13696
 Total number of CSFs:                       13808

 Length of J-op  integral file:               7.76 MB
 Length of K-op  integral file:              13.74 MB
 Length of 3-ext integral record:             0.00 MB

 Memory could be reduced to 1.69 Mwords without degradation in triples

 Integral transformation finished. Total CPU:   0.27 sec, npass=  1  Memory used:   0.37 MW

 Reference energy:                    -39.25034771

 Adding F12 terms to K(Cij), methodcc=6,  factor= 1.0

 ITER.      SQ.NORM     CORR.ENERGY   TOTAL ENERGY   ENERGY CHANGE        DEN1      VAR(S)    VAR(P)  DIIS     TIME  TIME/IT
   1      1.04865925    -0.15169503   -39.40204274    -0.01719976    -0.01230207  0.22D-03  0.10D-02  1  1     4.98     0.04
   2      1.05399934    -0.15304405   -39.40339176    -0.00134902    -0.00521291  0.34D-05  0.70D-04  2  2     5.16     0.04
   3      1.05548300    -0.15315622   -39.40350392    -0.00011217    -0.00106619  0.23D-06  0.36D-05  3  3     5.33     0.04
   4      1.05570053    -0.15316874   -39.40351644    -0.00001252    -0.00008633  0.89D-08  0.18D-06  4  4     5.51     0.04
   5      1.05572944    -0.15316865   -39.40351636     0.00000008    -0.00000366  0.57D-09  0.12D-07  5  5     5.70     0.04
   6      1.05573386    -0.15316829   -39.40351600     0.00000036    -0.00000170  0.32D-10  0.12D-08  6  6     5.86     0.04
   7      1.05573463    -0.15316829   -39.40351600     0.00000000    -0.00000024  0.78D-11  0.17D-09  6  1     6.02     0.04
   8      1.05573493    -0.15316833   -39.40351604    -0.00000004     0.00000005  0.15D-11  0.14D-10  6  2     6.17     0.04
   9      1.05573499    -0.15316832   -39.40351603     0.00000001     0.00000000  0.10D-12  0.70D-12  6  3     6.34     0.04
  10      1.05573500    -0.15316832   -39.40351603     0.00000000    -0.00000001  0.69D-14  0.24D-13  6  4     6.52     0.04

 Norm of t1 vector:      0.02058730      S-energy:    -0.00000000      T1 diagnostic:  0.00594304
                                                                       D1 diagnostic:  0.00906867
                                                                       D2 diagnostic:  0.13088169 (internal)

 Doubles amplitudes (print threshold =  0.500E-01):

         I         J         SYM. A    SYM. B    A         B      T(IJ, AB)

         1         1         3         3         1         1     -0.05314121

 Adding energy correction from Wij-K(Fij), methodcc=6  factor= 1.0

  CCSD correlation energy              -0.153168322110
  MP2-F12 correction (uncoupled)       -0.012466939019
  C*T doubles correction               -0.000259484386
  f12b correction                       0.002714041620


 Total CPU time for triples:      0.38 sec


 RESULTS
 =======

  Reference energy                    -39.249882435949
  F12 singles correction               -0.000465269818

 F12 singles corrections added to reference energy

  New reference energy                -39.250347705766

  F12a singlet correction              -0.012104351685
  F12a triplet correction              -0.000622071720
  F12a total correction                -0.012726423404

 F12a corrections for ansatz F12/3C(FIX) added to CCSD energy

  CCSD-F12a singlet pair energy        -0.138515055134
  CCSD-F12a triplet pair energy        -0.027379689290
  CCSD-F12a correlation energy         -0.165894745515

  Triples (T) contribution             -0.003136853019
  Total correlation energy             -0.169031598534

  CCSD-F12a total energy              -39.416242451281
  CCSD[T]-F12a energy                 -39.419448925360
  CCSD-T-F12a energy                  -39.419348501286
 !CCSD(T)-F12a total energy           -39.419379304300

 F12b corrections for ansatz F12/3C(FIX) added to CCSD(T)-F12a energy

  CCSD-F12b singlet pair energy        -0.135881467281
  CCSD-F12b triplet pair energy        -0.027299235524
  CCSD-F12b correlation energy         -0.163180703895

  Triples (T) contribution             -0.003136853019
  Total correlation energy             -0.166317556914

  CCSD-F12b total energy              -39.413528409661
  CCSD[T]-F12b energy                 -39.416734883740
  CCSD-T-F12b energy                  -39.416634459665
 !CCSD(T)-F12b total energy           -39.416665262680

 Timing summary (sec):

 STEP                 CPU(USER)    SYS     CPU(TOT)    WALL
 Transformation          0.28      0.01      0.29      0.05
 CCSD iterations         1.75      0.05      1.80      0.42
 Triples                 0.38      0.00      0.38      0.05
 MP2-F12                 4.51      0.05      4.56      2.95
 F12b energy             0.15      0.00      0.15      0.03

 Program statistics:

 Available memory in ccsd:               499999928
 Min. memory needed in ccsd:                 87822
 Max. memory used in ccsd:                   96159
 Max. memory used in cckext:                150545 (11 integral passes)



 **********************************************************************************************************************************
 DATASETS  * FILE   NREC   LENGTH (MB)   RECORD NAMES
              1      20       52.02       500      610      700      900      950      970     1000      129      960     1100   
                                          VAR    BASINP    GEOM    SYMINP    ZMAT    AOBASIS   BASIS     P2S    ABASIS      S 
                                         1400     1410     1200     1210     1080     1600     1650     1300     1700     1380   
                                           T        V       H0       H01     AOSYM     SMH    MOLCAS    ERIS     OPER     JKOP   

              2      11        1.12       700     1000      520     2100      200     2101     4101     9001     7360     7350   
                                         GEOM     BASIS   MCVARS     RHF    OPTIONS    RHF     CPHF    DEN_MP2  F12ABS    EF12   
                                         7000   

 PROGRAMS   *        TOTAL   CCSD(T)   MP2-F12      OPTG    HF-SCF       INT
 CPU TIMES  *        41.85      7.11      4.78     27.88      0.60      1.38
 REAL TIME  *        15.59 SEC
 DISK USED  *       108.07 MB
 **********************************************************************************************************************************

 CCSD(T)-F12/cc-pVTZ-F12//HF/cc-pVTZ-F12 energy=    -39.416665262680

     CCSD(T)-F12         MP2-F12       OPTG(MP2)          HF-SCF
    -39.41666526    -39.39759482    -39.38437771    -39.23485624
 **********************************************************************************************************************************
 Molpro calculation terminated
