
 Working directory              : /tmp/asmola/molpro.OklXYUl9xF/
 Global scratch directory       : /tmp/asmola/molpro.OklXYUl9xF/
 Wavefunction directory         : /home/asmola/wfu/
 Main file repository           : /tmp/asmola/molpro.OklXYUl9xF/

 id        : uclcc

 Nodes                        nprocs
 vincent.theory.phys.ucl.ac.uk    1
 GA implementation: MPI file
 GA implementation (serial work in mppx): MPI file

 Using customized tuning parameters: mindgm=1; mindgv=20; mindgc=4; mindgr=1; noblas=0; minvec=7
 default implementation of scratch files=df  


 Variables initialized (1015), CPU time= 0.00 sec
 ***,CH3+ Ground State Energy with CCSD(T)-F12 and cc-pVTZ-F12
 memory,500,m;
 
 geometry={angstrom
 c
 h1 , 1, rch1
 h2 , 1, rch2, 2, ach12
 h3 , 1, rch3, 2, ach23, 3, rho
 }
 
 rch1 = 1.08643631
 rch2 = 1.08643631
 rch3 = 1.08643631
 ach12 = 120.0
 ach23 = 120.0
 rho = 90.0
 
                                                                                 ! Set charge to +1
 set,nelec=8
 set,charge=+1
 
                                                                                 ! Use the cc-pVTZ-F12 basis set
 basis=cc-pVTZ-F12
 
 hf
 
                                                                                 ! Use explicitly correlated F12 methods
                                                                            ! First, MP2-F12 (useful for initial electronic energy)
 {mp2-f12}
 
                                                                        ! If desired, perform CCSD(T)-F12 for more accurate results
 {ccsd(t)-f12}
 
                                                                                 ! Output the energy
 xxx = "mmm"
 point = 1
 text ### CH3+
 table,xxx,rch1,rch2,rch3,ach12,ach23,rho,energy,point
 DIGITS, 0, 8, 8, 8, 8, 8, 8, 8, 4
 save,CH3+_MP2_1.dat,new
 
 Commands initialized (818), CPU time= 0.01 sec, 672 directives.
 Default parameters read. Elapsed time= 0.05 sec

 Checking input...
 Passed
1


                                         ***  PROGRAM SYSTEM MOLPRO  ***
                                       Copyright, TTI GmbH Stuttgart, 2015
                                    Version 2022.1 linked Mar  3 2022 23:20:00


 **********************************************************************************************************************************
 LABEL *   CH3+ Ground State Energy with CCSD(T)-F12 and cc-pVTZ-F12                     
  (8 PROC) 64 bit serial version                                                         DATE: 10-Oct-24          TIME: 18:45:47  
 **********************************************************************************************************************************

 SHA1:             31073afc4d8441e10870424e0d77336a33bc4286
 **********************************************************************************************************************************

 Memory per process:       500 MW
 Total memory per node:    500 MW

 GA preallocation disabled
 GA check disabled

 Variable memory set to 500.0 MW

 SETTING RCH1           =         1.08643631                                  
 SETTING RCH2           =         1.08643631                                  
 SETTING RCH3           =         1.08643631                                  
 SETTING ACH12          =       120.00000000                                  
 SETTING ACH23          =       120.00000000                                  
 SETTING RHO            =        90.00000000                                  
 SETTING !NELEC         =         8.00000000                                  
 SETTING CHARGE         =         1.00000000                                  
 SETTING BASIS          =    CC-PVTZ-F12


 Recomputing integrals since basis changed


 Using spherical harmonics

 Library entry C      S cc-pVTZ-F12          selected for orbital group  1
 Library entry C      P cc-pVTZ-F12          selected for orbital group  1
 Library entry C      D cc-pVTZ-F12          selected for orbital group  1
 Library entry C      F cc-pVTZ-F12          selected for orbital group  1
 Library entry H      S cc-pVTZ-F12          selected for orbital group  2
 Library entry H      P cc-pVTZ-F12          selected for orbital group  2
 Library entry H      D cc-pVTZ-F12          selected for orbital group  2


 PROGRAM * SEWARD (Integral evaluation for generally contracted gaussian basis sets)     Author: Roland Lindh, 1990

 Geometry written to block  1 of record 700

 Orientation using atomic masses  
 Molecule type: Asymmetric top
 Symmetry elements: X
 Rotational constants:     197.6281261    165.2696728    393.6309264 GHz  (calculated with average atomic masses)

 Point group  Cs  



 ATOMIC COORDINATES

 NR  ATOM    CHARGE       X              Y              Z

   1  C       6.00    0.000000000   -0.149374853    0.078125817
   2  H1      1.00    0.000000000    0.802133258    1.897388509
   3  H2      1.00   -1.257241687    0.488937418   -1.414182868
   4  H3      1.00    1.257241687    0.488937418   -1.414182868

 Bond lengths in Bohr (Angstrom)

 1-2  2.053067078  1-3  2.053067078  1-4  2.053067078
     ( 1.086436310)     ( 1.086436310)     ( 1.086436310)

 Bond angles

  2-1-3  120.00000000   2-1-4  120.00000000   3-1-4   75.52248781

 NUCLEAR CHARGE:                    9
 NUMBER OF PRIMITIVE AOS:         135
 NUMBER OF SYMMETRY AOS:          123
 NUMBER OF CONTRACTIONS:          107   (   66A'  +   41A"  )
 NUMBER OF INNER CORE ORBITALS:     0   (    0A'  +    0A"  )
 NUMBER OF OUTER CORE ORBITALS:     1   (    1A'  +    0A"  )
 NUMBER OF VALENCE ORBITALS:        7   (    5A'  +    2A"  )


 NUCLEAR REPULSION ENERGY    9.72749373

 Eigenvalues of metric

         1 0.151E-03 0.346E-03 0.536E-03 0.576E-03 0.681E-03 0.118E-02 0.208E-02 0.215E-02
         2 0.330E-03 0.560E-03 0.205E-02 0.435E-02 0.705E-02 0.938E-02 0.127E-01 0.194E-01


 Contracted 2-electron integrals neglected if value below      1.0D-11
 AO integral compression algorithm  1   Integral accuracy      1.0D-11

     50.594 MB (compressed) written to integral file ( 55.6%)


 NUMBER OF SORTED TWO-ELECTRON INTEGRALS:    8527470.     BUFFER LENGTH:  32768
 NUMBER OF SEGMENTS:   1  SEGMENT LENGTH:    8527470      RECORD LENGTH: 524288

 Memory used in sort:       9.08 MW

 SORT1 READ    11366158. AND WROTE     8014434. INTEGRALS IN     23 RECORDS. CPU TIME:     0.07 SEC, REAL TIME:     0.11 SEC
 SORT2 READ     8014434. AND WROTE     8527470. INTEGRALS IN    193 RECORDS. CPU TIME:     0.14 SEC, REAL TIME:     0.16 SEC

 FILE SIZES:   FILE 1:    80.9 MBYTE,  FILE 4:    96.5 MBYTE,   TOTAL:    177.4 MBYTE

 OPERATOR DM      FOR CENTER  0  COORDINATES:    0.000000    0.000000    0.000000


 **********************************************************************************************************************************
 DATASETS  * FILE   NREC   LENGTH (MB)   RECORD NAMES
              1      19       64.91       500      610      700      900      950      970     1000      129      960     1100   
                                          VAR    BASINP    GEOM    SYMINP    ZMAT    AOBASIS   BASIS     P2S    ABASIS      S 
                                         1400     1410     1200     1210     1080     1600     1650     1300     1700   
                                           T        V       H0       H01     AOSYM     SMH    MOLCAS    ERIS     OPER   

 PROGRAMS   *        TOTAL       INT
 CPU TIMES  *         1.92      1.82
 REAL TIME  *         1.03 SEC
 DISK USED  *       169.49 MB
 **********************************************************************************************************************************


 Program * Restricted Hartree-Fock

 Orbital guess generated from atomic densities. Full valence occupancy:    6   2

 Initial occupancy:   3   1

 NELEC=    8   SYM=1   MS2= 0   THRE=1.0D-08   THRD=3.2D-06   THRG=3.2D-06  HFMA2=F  DIIS_START=2   DIIS_MAX=10   DIIS_INCORE=F

 Level shifts:    0.00 (CLOSED)    0.00 (OPEN)    0.30 (GAP_MIN)

 ITER           ETOT              DE          GRAD        DDIFF     DIIS  NEXP   TIME(IT)  TIME(TOT)  DIAG
   1      -39.08824089     -39.08824089     0.00D+00     0.75D-01     0     0       0.11      0.23    start
   2      -39.14460811      -0.05636722     0.14D-01     0.14D-01     1     0       0.11      0.34    diag
   3      -39.14812169      -0.00351358     0.41D-02     0.42D-02     2     0       0.11      0.45    diag
   4      -39.14838155      -0.00025986     0.70D-03     0.68D-03     3     0       0.11      0.56    diag
   5      -39.14840437      -0.00002282     0.19D-03     0.23D-03     4     0       0.13      0.69    diag
   6      -39.14840617      -0.00000179     0.43D-04     0.64D-04     5     0       0.11      0.80    diag
   7      -39.14840645      -0.00000028     0.15D-04     0.27D-04     6     0       0.13      0.93    diag
   8      -39.14840648      -0.00000003     0.50D-05     0.12D-04     7     0       0.11      1.04    fixocc
   9      -39.14840648      -0.00000000     0.49D-06     0.10D-05     8     0       0.11      1.15    diag
  10      -39.14840648      -0.00000000     0.87D-07     0.10D-06     0     0       0.12      1.27    diag/orth

 Final occupancy:   3   1

 !RHF STATE 1.1 Energy                -39.148406481685
  RHF One-electron energy             -68.102002787530
  RHF Two-electron energy              19.226102579141
  RHF Kinetic energy                   39.186835746540
  RHF Nuclear energy                    9.727493726704
  RHF Virial quotient                  -0.999019332280

 !RHF STATE 1.1 Dipole moment           0.00000000     0.10216893    -0.15988828
 Dipole moment /Debye                   0.00000000     0.25968753    -0.40639548

 Orbital energies:

           1.1          2.1          3.1          4.1          5.1
    -11.684582    -1.300075    -0.986127    -0.329509    -0.125723

           1.2          2.2          3.2
     -0.854116    -0.078025    -0.032878


 HOMO      1.2    -0.854116 =     -23.2417eV
 LUMO      4.1    -0.329509 =      -8.9664eV
 LUMO-HOMO         0.524606 =      14.2753eV

 Orbitals saved in record  2100.2


 **********************************************************************************************************************************
 DATASETS  * FILE   NREC   LENGTH (MB)   RECORD NAMES
              1      19       64.91       500      610      700      900      950      970     1000      129      960     1100   
                                          VAR    BASINP    GEOM    SYMINP    ZMAT    AOBASIS   BASIS     P2S    ABASIS      S 
                                         1400     1410     1200     1210     1080     1600     1650     1300     1700   
                                           T        V       H0       H01     AOSYM     SMH    MOLCAS    ERIS     OPER   

              2       4        0.48       700     1000      520     2100   
                                         GEOM     BASIS   MCVARS     RHF  

 PROGRAMS   *        TOTAL    HF-SCF       INT
 CPU TIMES  *         3.20      1.28      1.82
 REAL TIME  *         1.53 SEC
 DISK USED  *       169.49 MB
 **********************************************************************************************************************************


 PROGRAM * MP2 (Closed-shell)     Authors: C. Hampel, H.-J. Werner, 1991, M. Deegan, P.J. Knowles, 1992

                                   MP2-F12 implementation by H.-J. Werner, 2007

                   Density fitting integral evaluation by F.R. Manby, 2003,2007, G. Knizia, 2010


 Basis set VTZ-F12/JKFIT generated.      Number of basis functions:   242 
 Basis set CC-PVTZ-F12/OPTRI generated.  Number of basis functions:   198 
 Basis set CC-PVTZ-F12/MP2FIT generated. Number of basis functions:   244 

 Convergence thresholds:  THRVAR = 1.00D-08  THRDEN = 1.00D-06

 Number of core orbitals:           1 (   1   0 )
 Number of closed-shell orbitals:   3 (   2   1 )
 Number of external orbitals:     103 (  63  40 )

 Molecular orbitals read from record     2100.2  Type=RHF/CANONICAL  

 MP2-F12 correlation treatment (H.-J. Werner, 2006)
 ==================================================

 Using MP2-F12 with ansatz 3C(FIX)

 Using projected zeroth-order Hamiltonian (+Z)

 FOCKRIB=T FOCKRIC=T FOCKRIP=T CABSP=T CABSA=T CABSK=T CABSF=T GBC=F EBC=F DMAT=T NOFIK=T NOPAO=1 SOLVE=-1  USEPAO=0
 EXCH_A= T EXCH_B= F EXCH_C= F EXCH_P= F

 Geminal basis:    OPTFULL  GEM_TYPE=SLATER  BETA=1.0  NGEM=6

 Optimizing Gaussian exponents for each gem_beta

 Geminal optimization for beta= 1.0000
 Weight function:   m=0, omega= 1.4646

 Augmented Hessian optimization of geminal fit. Trust ratio= 0.40000
 Convergence reached after   2 iterations. Final gradient= 8.66D-16, Step= 4.23D-06, Delta= 1.28D-09

 Alpha:                 0.19532     0.81920     2.85917     9.50073    35.69989   197.79328
 Coeff:                 0.27070     0.30552     0.18297     0.10986     0.06810     0.04224


 Symmetry turned off. Reference energy:        -39.148406481685

 All pairs explicitly correlated. Number of r12-pairs:            6

 Excluding core orbitals from MO domains

 AO(A)-basis ORBITAL           loaded. Number of functions:     107
 RI(R)-basis CC-PVTZ-F12/OPTRI loaded. Number of functions:     198
 DF-basis VTZ-F12/JKFIT        loaded. Number of functions:     242

 Screening thresholds:   THRAO=  1.00D-10  THRMO=  1.00D-09  THRPROD=  1.00D-09
                         THRSW=  1.00D-05  THROV=  1.00D-12  THRAOF12= 1.00D-08

 CPU time for Fock operators                      1.79 sec

 Construction of ABS:
 Smallest eigenvalue of S          4.17E-04  (threshold= 1.00E-08)
 Ratio eigmin/eigmax               6.07E-05  (threshold= 1.00E-09)
 Smallest eigenvalue of S kept     4.17E-04  (threshold= 4.17E-04, 0 functions deleted, 198 kept)

 Construction of CABS:
 Smallest eigenvalue of S          1.69E-06  (threshold= 1.00E-08)
 Ratio eigmin/eigmax               1.69E-06  (threshold= 1.00E-09)
 Smallest eigenvalue of S kept     1.69E-06  (threshold= 1.69E-06, 0 functions deleted, 198 kept)

 CPU time for CABS singles                        0.06 sec

 CABS-singles contribution of  -0.00047533 patched into reference energy.
 New reference energy         -39.14888181

 AO(A)-basis ORBITAL           loaded. Number of functions:     107
 RI(R)-basis CC-PVTZ-F12/OPTRI loaded. Number of functions:     198
 DF-basis CC-PVTZ-F12/MP2FIT   loaded. Number of functions:     244

 Screening thresholds:   THRAO=  1.00D-10  THRMO=  1.00D-09  THRPROD=  1.00D-09
                         THRSW=  1.00D-05  THROV=  1.00D-12  THRAOF12= 1.00D-08

 CPU time for 3-index integral evaluation         1.08 sec
 CPU time for first  half transformation          0.05 sec ( 4827.9 MFLOP/sec)
 CPU time for second half transformation          0.01 sec (  438.6 MFLOP/sec)
 CPU time for fitting                             0.02 sec ( 5661.9 MFLOP/sec)
 CPU time for tilde quantities                    0.03 sec ( 5001.0 MFLOP/sec)
 CPU time for assembly                            0.05 sec (11744.7 MFLOP/sec)
 CPU time for tranop_f12                          0.11 sec ( 6193.9 MFLOP/sec)
 CPU time for f12 integrals (total)               2.33 sec, Elapsed time:      1.64 sec
 CPU time for f12 matrices (total)                0.05 sec, Elapsed time:      0.01 sec

 Diagonal F12 approximation with fixed coefficients:  TSING= 0.500,  TTRIP= 0.250 (scaled by -1/beta)

 DF-MP2-F12 energy corrections:
 ==============================
 Approx.                                    Singlet             Triplet             Total
 DF-MP2-F12/3*C(DX,FIX)                -0.012613971571     -0.000754103046     -0.013368074617
 DF-MP2-F12/3*C(FIX)                   -0.012286132234     -0.000757231662     -0.013043363895
 DF-MP2-F12/3C(FIX)                    -0.012227831828     -0.000766161235     -0.012993993062

 DF-MP2-F12 correlation energies:
 ================================
 Approx.                                    Singlet             Triplet             Ecorr            Total Energy
 DF-MP2                                -0.111504613225     -0.030244849506     -0.141749462731    -39.290631272899
 DF-MP2-F12/3*C(DX,FIX)                -0.124118584796     -0.030998952552     -0.155117537348    -39.303999347516
 DF-MP2-F12/3*C(FIX)                   -0.123790745458     -0.031002081168     -0.154792826626    -39.303674636795
 DF-MP2-F12/3C(FIX)                    -0.123732445052     -0.031011010741     -0.154743455793    -39.303625265962

 SCS-DF-MP2 energies (F_SING= 1.20000  F_TRIP= 0.62222  F_PARALLEL= 0.33333):
 ============================================================================
 SCS-DF-MP2                            -0.152624553340    -39.301506363509
 SCS-DF-MP2-F12/3*C(DX,FIX)            -0.168230538898    -39.317112349067
 SCS-DF-MP2-F12/3*C(FIX)               -0.167839078388    -39.316720888556
 SCS-DF-MP2-F12/3C(FIX)                -0.167774674079    -39.316656484248

 Symmetry restored.
 Symmetry transformation completed.

 Number of N-1 electron functions:               3
 Number of N-2 electron functions:               6
 Number of singly external CSFs:               166
 Number of doubly external CSFs:             24157
 Total number of CSFs:                       24324

 Length of J-op  integral file:               7.85 MB
 Length of K-op  integral file:              14.27 MB

 Integral transformation finished. Total CPU:   0.14 sec, npass=  1  Memory used:   0.15 MW

 ITER.      SQ.NORM     CORR.ENERGY   TOTAL ENERGY   ENERGY CHANGE     VAR   MIC
   1      1.00000000    -0.14180920   -39.29069102    -0.14180920  0.00D+00   0
   2      1.04245615    -0.14180921   -39.29069102    -0.00000000  0.28D-09   0

 Solving MP2-F12 equations

   1      1.04240986    -0.15459154   -39.30347335    -0.01278234 -0.30D-04   0
   2      1.04240986    -0.15480289   -39.30368470    -0.00021135 -0.24D-12   0
   3      1.04240986    -0.15480289   -39.30368470    -0.00000000  0.31D-18   0

 CPU TIME FOR ITERATIVE MP2:    0.04 SEC


 MP2-F12 energy corrections:
 ===========================
 Approx.                                    Singlet             Triplet             Total
 MP2-F12/3*C(DX,FIX)                   -0.012613971571     -0.000754103046     -0.013368074617
 MP2-F12/3*C(FIX)                      -0.012286132234     -0.000757231662     -0.013043363895
 MP2-F12/3C(FIX)                       -0.012226033428     -0.000767654894     -0.012993688322

 MP2-F12 correlation energies:
 =============================
 Approx.                                    Singlet             Triplet             Ecorr            Total Energy
 MP2                                   -0.111603338062     -0.030205867639     -0.141809205701    -39.290691015869
 MP2-F12/3*C(DX,FIX)                   -0.124217309633     -0.030959970684     -0.155177280318    -39.304059090486
 MP2-F12/3*C(FIX)                      -0.123889470296     -0.030963099300     -0.154852569596    -39.303734379765
 MP2-F12/3C(FIX)                       -0.123829371490     -0.030973522533     -0.154802894023    -39.303684704192

 SCS-MP2 energies (F_SING= 1.20000  F_TRIP= 0.62222  F_PARALLEL= 0.33333):
 =========================================================================
 SCS-MP2                               -0.152718767761    -39.301600577929
 SCS-MP2-F12/3*C(DX,FIX)               -0.168324753319    -39.317206563488
 SCS-MP2-F12/3*C(FIX)                  -0.167933292808    -39.316815102977
 SCS-MP2-F12/3C(FIX)                   -0.167867659809    -39.316749469977


  Reference energy                    -39.148406481685
  F12 singles correction               -0.000475328484

 F12 singles corrections added to reference energy

  New reference energy                -39.148881810169

  F12/3C(F) singlet correction         -0.012226033428
  F12/3C(F) triplet correction         -0.000767654894
  F12/3C(F) total correction           -0.012993688322
  MP2-F12/3C(F) singlet pair energy    -0.123829371490
  MP2-F12/3C(F) triplet pair energy    -0.030973522533
  MP2-F12/3C(F) correlation energy     -0.154802894023

 !MP2-F12/3C(F) total energy          -39.303684704192


 **********************************************************************************************************************************
 DATASETS  * FILE   NREC   LENGTH (MB)   RECORD NAMES
              1      20       65.40       500      610      700      900      950      970     1000      129      960     1100   
                                          VAR    BASINP    GEOM    SYMINP    ZMAT    AOBASIS   BASIS     P2S    ABASIS      S 
                                         1400     1410     1200     1210     1080     1600     1650     1300     1700     1380   
                                           T        V       H0       H01     AOSYM     SMH    MOLCAS    ERIS     OPER     JKOP   

              2       7        0.55       700     1000      520     2100     7360     7350     7000   
                                         GEOM     BASIS   MCVARS     RHF    F12ABS    EF12   

 PROGRAMS   *        TOTAL   MP2-F12    HF-SCF       INT
 CPU TIMES  *         7.96      4.75      1.28      1.82
 REAL TIME  *         4.63 SEC
 DISK USED  *       169.49 MB
 **********************************************************************************************************************************


 PROGRAM * CCSD (Closed-shell coupled cluster)     Authors: C. Hampel, H.-J. Werner, 1991, M. Deegan, P.J. Knowles, 1992

                                  CCSD-F12 implementation by  H.-J. Werner, 2007

                   Density fitting integral evaluation by F.R. Manby, 2003,2007, G. Knizia, 2010



 Convergence thresholds:  THRVAR = 1.00D-08  THRDEN = 1.00D-06

 CCSD(T)     terms to be evaluated (factor= 1.000)


 Number of core orbitals:           1 (   1   0 )
 Number of closed-shell orbitals:   3 (   2   1 )
 Number of external orbitals:     103 (  63  40 )

 Molecular orbitals read from record     2100.2  Type=RHF/CANONICAL  

 MP2-F12 correlation treatment (H.-J. Werner, 2006)
 ==================================================

 Using MP2-F12 with ansatz 3C(FIX)

 Using projected zeroth-order Hamiltonian (+Z)

 FOCKRIB=T FOCKRIC=T FOCKRIP=T CABSP=T CABSA=T CABSK=T CABSF=T GBC=F EBC=F DMAT=T NOFIK=T NOPAO=1 SOLVE=-1  USEPAO=0
 EXCH_A= T EXCH_B= F EXCH_C= F EXCH_P= F

 Geminal basis:    OPTFULL  GEM_TYPE=SLATER  BETA=1.0  NGEM=6

 Optimizing Gaussian exponents for each gem_beta

 Geminal optimization for beta= 1.0000
 Weight function:   m=0, omega= 1.4646

 Augmented Hessian optimization of geminal fit. Trust ratio= 0.40000
 Convergence reached after   2 iterations. Final gradient= 8.66D-16, Step= 4.23D-06, Delta= 1.28D-09

 Alpha:                 0.19532     0.81920     2.85917     9.50073    35.69989   197.79328
 Coeff:                 0.27070     0.30552     0.18297     0.10986     0.06810     0.04224


 Symmetry turned off. Reference energy:        -39.148406481685

 All pairs explicitly correlated. Number of r12-pairs:            6

 Excluding core orbitals from MO domains

 AO(A)-basis ORBITAL           loaded. Number of functions:     107
 RI(R)-basis CC-PVTZ-F12/OPTRI loaded. Number of functions:     198
 DF-basis VTZ-F12/JKFIT        loaded. Number of functions:     242

 Screening thresholds:   THRAO=  1.00D-10  THRMO=  1.00D-09  THRPROD=  1.00D-09
                         THRSW=  1.00D-05  THROV=  1.00D-12  THRAOF12= 1.00D-08

 CPU time for Fock operators                      1.83 sec

 Construction of ABS:
 Smallest eigenvalue of S          4.17E-04  (threshold= 1.00E-08)
 Ratio eigmin/eigmax               6.07E-05  (threshold= 1.00E-09)
 Smallest eigenvalue of S kept     4.17E-04  (threshold= 4.17E-04, 0 functions deleted, 198 kept)

 Construction of CABS:
 Smallest eigenvalue of S          1.69E-06  (threshold= 1.00E-08)
 Ratio eigmin/eigmax               1.69E-06  (threshold= 1.00E-09)
 Smallest eigenvalue of S kept     1.69E-06  (threshold= 1.69E-06, 0 functions deleted, 198 kept)

 CPU time for CABS singles                        0.06 sec

 CABS-singles contribution of  -0.00047533 patched into reference energy.
 New reference energy         -39.14888181

 AO(A)-basis ORBITAL           loaded. Number of functions:     107
 RI(R)-basis CC-PVTZ-F12/OPTRI loaded. Number of functions:     198
 DF-basis CC-PVTZ-F12/MP2FIT   loaded. Number of functions:     244

 Screening thresholds:   THRAO=  1.00D-10  THRMO=  1.00D-09  THRPROD=  1.00D-09
                         THRSW=  1.00D-05  THROV=  1.00D-12  THRAOF12= 1.00D-08

 CPU time for 3-index integral evaluation         1.10 sec
 CPU time for first  half transformation          0.02 sec (12069.7 MFLOP/sec)
 CPU time for fitting                             0.02 sec ( 5661.9 MFLOP/sec)
 CPU time for tilde quantities                    0.02 sec ( 7501.5 MFLOP/sec)
 CPU time for assembly                            0.08 sec ( 7340.5 MFLOP/sec)
 CPU time for tranop_f12                          0.11 sec ( 6193.9 MFLOP/sec)
 CPU time for f12 integrals (total)               2.34 sec, Elapsed time:      1.64 sec
 CPU time for f12 matrices (total)                0.05 sec, Elapsed time:      0.01 sec

 Diagonal F12 approximation with fixed coefficients:  TSING= 0.500,  TTRIP= 0.250 (scaled by -1/beta)

 DF-MP2-F12 energy corrections:
 ==============================
 Approx.                                    Singlet             Triplet             Total
 DF-MP2-F12/3*C(DX,FIX)                -0.012613971571     -0.000754103046     -0.013368074617
 DF-MP2-F12/3*C(FIX)                   -0.012286132234     -0.000757231662     -0.013043363895
 DF-MP2-F12/3C(FIX)                    -0.012227831828     -0.000766161235     -0.012993993062

 DF-MP2-F12 correlation energies:
 ================================
 Approx.                                    Singlet             Triplet             Ecorr            Total Energy
 DF-MP2                                -0.111504613225     -0.030244849506     -0.141749462731    -39.290631272899
 DF-MP2-F12/3*C(DX,FIX)                -0.124118584796     -0.030998952552     -0.155117537348    -39.303999347516
 DF-MP2-F12/3*C(FIX)                   -0.123790745458     -0.031002081168     -0.154792826626    -39.303674636795
 DF-MP2-F12/3C(FIX)                    -0.123732445052     -0.031011010741     -0.154743455793    -39.303625265962

 SCS-DF-MP2 energies (F_SING= 1.20000  F_TRIP= 0.62222  F_PARALLEL= 0.33333):
 ============================================================================
 SCS-DF-MP2                            -0.152624553340    -39.301506363509
 SCS-DF-MP2-F12/3*C(DX,FIX)            -0.168230538898    -39.317112349067
 SCS-DF-MP2-F12/3*C(FIX)               -0.167839078388    -39.316720888556
 SCS-DF-MP2-F12/3C(FIX)                -0.167774674079    -39.316656484248

 Symmetry restored.
 Symmetry transformation completed.

 Number of N-1 electron functions:               3
 Number of N-2 electron functions:               6
 Number of singly external CSFs:               166
 Number of doubly external CSFs:             24157
 Total number of CSFs:                       24324

 Length of J-op  integral file:               7.86 MB
 Length of K-op  integral file:              14.27 MB
 Length of 3-ext integral record:             0.00 MB

 Memory could be reduced to 3.16 Mwords without degradation in triples

 Integral transformation finished. Total CPU:   0.36 sec, npass=  1  Memory used:   0.93 MW

 Reference energy:                    -39.14888181

 Adding F12 terms to K(Cij), methodcc=6,  factor= 1.0

 ITER.      SQ.NORM     CORR.ENERGY   TOTAL ENERGY   ENERGY CHANGE        DEN1      VAR(S)    VAR(P)  DIIS     TIME  TIME/IT
   1      1.05379773    -0.15930167   -39.30818348    -0.01749246    -0.01222899  0.25D-03  0.12D-02  1  1     5.42     0.09
   2      1.06033781    -0.16099144   -39.30987325    -0.00168977    -0.00553068  0.10D-04  0.14D-03  2  2     5.95     0.09
   3      1.06293665    -0.16124521   -39.31012702    -0.00025377    -0.00142649  0.26D-05  0.20D-04  3  3     6.48     0.09
   4      1.06382989    -0.16130120   -39.31018301    -0.00005598    -0.00024228  0.35D-06  0.40D-05  4  4     7.01     0.09
   5      1.06422916    -0.16130975   -39.31019156    -0.00000855    -0.00005563  0.54D-07  0.65D-06  5  5     7.54     0.09
   6      1.06436111    -0.16130920   -39.31019101     0.00000055    -0.00001766  0.23D-07  0.55D-07  6  6     8.16     0.10
   7      1.06437891    -0.16130988   -39.31019169    -0.00000068     0.00000077  0.42D-08  0.42D-08  6  1     8.70     0.09

 Norm of t1 vector:      0.02479280      S-energy:     0.00000077      T1 diagnostic:  0.00715707
                                                                       D1 diagnostic:  0.01231366
                                                                       D2 diagnostic:  0.15130055 (internal)

 Doubles amplitudes (print threshold =  0.500E-01):

         I         J         SYM. A    SYM. B    A         B      T(IJ, AB)

         3         3         1         1         1         1     -0.05504971

 Adding energy correction from Wij-K(Fij), methodcc=6  factor= 1.0

  CCSD correlation energy              -0.161309881561
  MP2-F12 correction (uncoupled)       -0.012696769829
  C*T doubles correction               -0.000264970312
  f12b correction                       0.002785541824


 Total CPU time for triples:      0.44 sec


 RESULTS
 =======

  Reference energy                    -39.148406481685
  F12 singles correction               -0.000475328484

 F12 singles corrections added to reference energy

  New reference energy                -39.148881810169

  F12a singlet correction              -0.012210332330
  F12a triplet correction              -0.000751407812
  F12a total correction                -0.012961740142

 F12a corrections for ansatz F12/3C(FIX) added to CCSD energy

  CCSD-F12a singlet pair energy        -0.143220606933
  CCSD-F12a triplet pair energy        -0.031051784994
  CCSD-F12a correlation energy         -0.174271621703

  Triples (T) contribution             -0.003771787887
  Total correlation energy             -0.178043409590

  CCSD-F12a total energy              -39.323153431871
  CCSD[T]-F12a energy                 -39.327003885537
  CCSD-T-F12a energy                  -39.326884820134
 !CCSD(T)-F12a total energy           -39.326925219758

 F12b corrections for ansatz F12/3C(FIX) added to CCSD(T)-F12a energy

  CCSD-F12b singlet pair energy        -0.140533487226
  CCSD-F12b triplet pair energy        -0.030953362877
  CCSD-F12b correlation energy         -0.171486079878

  Triples (T) contribution             -0.003771787887
  Total correlation energy             -0.175257867765

  CCSD-F12b total energy              -39.320367890047
  CCSD[T]-F12b energy                 -39.324218343712
  CCSD-T-F12b energy                  -39.324099278309
 !CCSD(T)-F12b total energy           -39.324139677934

 Timing summary (sec):

 STEP                 CPU(USER)    SYS     CPU(TOT)    WALL
 Transformation          0.39      0.02      0.41      0.10
 CCSD iterations         3.85      0.12      3.97      0.68
 Triples                 0.44      0.00      0.44      0.06
 MP2-F12                 4.50      0.05      4.55      2.96
 F12b energy             0.45      0.01      0.46      0.08

 Program statistics:

 Available memory in ccsd:               499999928
 Min. memory needed in ccsd:                154592
 Max. memory used in ccsd:                  169628
 Max. memory used in cckext:                317745 ( 8 integral passes)



 **********************************************************************************************************************************
 DATASETS  * FILE   NREC   LENGTH (MB)   RECORD NAMES
              1      20       71.75       500      610      700      900      950      970     1000      129      960     1100   
                                          VAR    BASINP    GEOM    SYMINP    ZMAT    AOBASIS   BASIS     P2S    ABASIS      S 
                                         1400     1410     1200     1210     1080     1600     1650     1300     1700     1380   
                                           T        V       H0       H01     AOSYM     SMH    MOLCAS    ERIS     OPER     JKOP   

              2       7        0.55       700     1000      520     2100     7360     7350     7000   
                                         GEOM     BASIS   MCVARS     RHF    F12ABS    EF12   

 PROGRAMS   *        TOTAL   CCSD(T)   MP2-F12    HF-SCF       INT
 CPU TIMES  *        17.63      9.66      4.75      1.28      1.82
 REAL TIME  *         8.55 SEC
 DISK USED  *       169.49 MB
 **********************************************************************************************************************************
 SETTING XXX            =    "MMM"
 SETTING POINT          =         1.00000000                                  

 *** ### CH3+


 XXX       RCH1         RCH2         RCH3           ACH12          ACH23         RHO            ENERGY      POINT
 "MMM"   1.08643631   1.08643631   1.08643631   120.00000000   120.00000000   90.00000000   -39.32692522   1.0000
                                                  

 CCSD(T)-F12/cc-pVTZ-F12 energy=    -39.324139677934

     CCSD(T)-F12         MP2-F12          HF-SCF
    -39.32413968    -39.30368470    -39.14840648
 **********************************************************************************************************************************
 Molpro calculation terminated
